<?xml version="1.0"?>
<VTKFile type="UnstructuredGrid"  version="0.1"  >
<UnstructuredGrid>
<Piece  NumberOfPoints="961" NumberOfCells="1800">
<Points>
<DataArray  type="Float64"  NumberOfComponents="3"  format="ascii">0 0 0  0.1047197551166667 0 0  0.2094395102333333 0 0  0.31415926535 0 0  0.4188790204666667 0 0  0.5235987755833333 0 0  0.6283185307 0 0  0.7330382858166667 0 0  0.8377580409333334 0 0  0.9424777960499999 0 0  1.047197551166667 0 0  1.151917306283333 0 0  1.2566370614 0 0  1.361356816516667 0 0  1.466076571633333 0 0  1.57079632675 0 0  1.675516081866667 0 0  1.780235836983333 0 0  1.8849555921 0 0  1.989675347216667 0 0  2.094395102333333 0 0  2.19911485745 0 0  2.303834612566667 0 0  2.408554367683334 0 0  2.5132741228 0 0  2.617993877916667 0 0  2.722713633033333 0 0  2.82743338815 0 0  2.932153143266667 0 0  3.036872898383334 0 0  3.1415926535 0 0  0 0.1047197551166667 0  0.1047197551166667 0.1047197551166667 0  0.2094395102333333 0.1047197551166667 0  0.31415926535 0.1047197551166667 0  0.4188790204666667 0.1047197551166667 0  0.5235987755833333 0.1047197551166667 0  0.6283185307 0.1047197551166667 0  0.7330382858166667 0.1047197551166667 0  0.8377580409333334 0.1047197551166667 0  0.9424777960499999 0.1047197551166667 0  1.047197551166667 0.1047197551166667 0  1.151917306283333 0.1047197551166667 0  1.2566370614 0.1047197551166667 0  1.361356816516667 0.1047197551166667 0  1.466076571633333 0.1047197551166667 0  1.57079632675 0.1047197551166667 0  1.675516081866667 0.1047197551166667 0  1.780235836983333 0.1047197551166667 0  1.8849555921 0.1047197551166667 0  1.989675347216667 0.1047197551166667 0  2.094395102333333 0.1047197551166667 0  2.19911485745 0.1047197551166667 0  2.303834612566667 0.1047197551166667 0  2.408554367683334 0.1047197551166667 0  2.5132741228 0.1047197551166667 0  2.617993877916667 0.1047197551166667 0  2.722713633033333 0.1047197551166667 0  2.82743338815 0.1047197551166667 0  2.932153143266667 0.1047197551166667 0  3.036872898383334 0.1047197551166667 0  3.1415926535 0.1047197551166667 0  0 0.2094395102333333 0  0.1047197551166667 0.2094395102333333 0  0.2094395102333333 0.2094395102333333 0  0.31415926535 0.2094395102333333 0  0.4188790204666667 0.2094395102333333 0  0.5235987755833333 0.2094395102333333 0  0.6283185307 0.2094395102333333 0  0.7330382858166667 0.2094395102333333 0  0.8377580409333334 0.2094395102333333 0  0.9424777960499999 0.2094395102333333 0  1.047197551166667 0.2094395102333333 0  1.151917306283333 0.2094395102333333 0  1.2566370614 0.2094395102333333 0  1.361356816516667 0.2094395102333333 0  1.466076571633333 0.2094395102333333 0  1.57079632675 0.2094395102333333 0  1.675516081866667 0.2094395102333333 0  1.780235836983333 0.2094395102333333 0  1.8849555921 0.2094395102333333 0  1.989675347216667 0.2094395102333333 0  2.094395102333333 0.2094395102333333 0  2.19911485745 0.2094395102333333 0  2.303834612566667 0.2094395102333333 0  2.408554367683334 0.2094395102333333 0  2.5132741228 0.2094395102333333 0  2.617993877916667 0.2094395102333333 0  2.722713633033333 0.2094395102333333 0  2.82743338815 0.2094395102333333 0  2.932153143266667 0.2094395102333333 0  3.036872898383334 0.2094395102333333 0  3.1415926535 0.2094395102333333 0  0 0.31415926535 0  0.1047197551166667 0.31415926535 0  0.2094395102333333 0.31415926535 0  0.31415926535 0.31415926535 0  0.4188790204666667 0.31415926535 0  0.5235987755833333 0.31415926535 0  0.6283185307 0.31415926535 0  0.7330382858166667 0.31415926535 0  0.8377580409333334 0.31415926535 0  0.9424777960499999 0.31415926535 0  1.047197551166667 0.31415926535 0  1.151917306283333 0.31415926535 0  1.2566370614 0.31415926535 0  1.361356816516667 0.31415926535 0  1.466076571633333 0.31415926535 0  1.57079632675 0.31415926535 0  1.675516081866667 0.31415926535 0  1.780235836983333 0.31415926535 0  1.8849555921 0.31415926535 0  1.989675347216667 0.31415926535 0  2.094395102333333 0.31415926535 0  2.19911485745 0.31415926535 0  2.303834612566667 0.31415926535 0  2.408554367683334 0.31415926535 0  2.5132741228 0.31415926535 0  2.617993877916667 0.31415926535 0  2.722713633033333 0.31415926535 0  2.82743338815 0.31415926535 0  2.932153143266667 0.31415926535 0  3.036872898383334 0.31415926535 0  3.1415926535 0.31415926535 0  0 0.4188790204666667 0  0.1047197551166667 0.4188790204666667 0  0.2094395102333333 0.4188790204666667 0  0.31415926535 0.4188790204666667 0  0.4188790204666667 0.4188790204666667 0  0.5235987755833333 0.4188790204666667 0  0.6283185307 0.4188790204666667 0  0.7330382858166667 0.4188790204666667 0  0.8377580409333334 0.4188790204666667 0  0.9424777960499999 0.4188790204666667 0  1.047197551166667 0.4188790204666667 0  1.151917306283333 0.4188790204666667 0  1.2566370614 0.4188790204666667 0  1.361356816516667 0.4188790204666667 0  1.466076571633333 0.4188790204666667 0  1.57079632675 0.4188790204666667 0  1.675516081866667 0.4188790204666667 0  1.780235836983333 0.4188790204666667 0  1.8849555921 0.4188790204666667 0  1.989675347216667 0.4188790204666667 0  2.094395102333333 0.4188790204666667 0  2.19911485745 0.4188790204666667 0  2.303834612566667 0.4188790204666667 0  2.408554367683334 0.4188790204666667 0  2.5132741228 0.4188790204666667 0  2.617993877916667 0.4188790204666667 0  2.722713633033333 0.4188790204666667 0  2.82743338815 0.4188790204666667 0  2.932153143266667 0.4188790204666667 0  3.036872898383334 0.4188790204666667 0  3.1415926535 0.4188790204666667 0  0 0.5235987755833333 0  0.1047197551166667 0.5235987755833333 0  0.2094395102333333 0.5235987755833333 0  0.31415926535 0.5235987755833333 0  0.4188790204666667 0.5235987755833333 0  0.5235987755833333 0.5235987755833333 0  0.6283185307 0.5235987755833333 0  0.7330382858166667 0.5235987755833333 0  0.8377580409333334 0.5235987755833333 0  0.9424777960499999 0.5235987755833333 0  1.047197551166667 0.5235987755833333 0  1.151917306283333 0.5235987755833333 0  1.2566370614 0.5235987755833333 0  1.361356816516667 0.5235987755833333 0  1.466076571633333 0.5235987755833333 0  1.57079632675 0.5235987755833333 0  1.675516081866667 0.5235987755833333 0  1.780235836983333 0.5235987755833333 0  1.8849555921 0.5235987755833333 0  1.989675347216667 0.5235987755833333 0  2.094395102333333 0.5235987755833333 0  2.19911485745 0.5235987755833333 0  2.303834612566667 0.5235987755833333 0  2.408554367683334 0.5235987755833333 0  2.5132741228 0.5235987755833333 0  2.617993877916667 0.5235987755833333 0  2.722713633033333 0.5235987755833333 0  2.82743338815 0.5235987755833333 0  2.932153143266667 0.5235987755833333 0  3.036872898383334 0.5235987755833333 0  3.1415926535 0.5235987755833333 0  0 0.6283185307 0  0.1047197551166667 0.6283185307 0  0.2094395102333333 0.6283185307 0  0.31415926535 0.6283185307 0  0.4188790204666667 0.6283185307 0  0.5235987755833333 0.6283185307 0  0.6283185307 0.6283185307 0  0.7330382858166667 0.6283185307 0  0.8377580409333334 0.6283185307 0  0.9424777960499999 0.6283185307 0  1.047197551166667 0.6283185307 0  1.151917306283333 0.6283185307 0  1.2566370614 0.6283185307 0  1.361356816516667 0.6283185307 0  1.466076571633333 0.6283185307 0  1.57079632675 0.6283185307 0  1.675516081866667 0.6283185307 0  1.780235836983333 0.6283185307 0  1.8849555921 0.6283185307 0  1.989675347216667 0.6283185307 0  2.094395102333333 0.6283185307 0  2.19911485745 0.6283185307 0  2.303834612566667 0.6283185307 0  2.408554367683334 0.6283185307 0  2.5132741228 0.6283185307 0  2.617993877916667 0.6283185307 0  2.722713633033333 0.6283185307 0  2.82743338815 0.6283185307 0  2.932153143266667 0.6283185307 0  3.036872898383334 0.6283185307 0  3.1415926535 0.6283185307 0  0 0.7330382858166667 0  0.1047197551166667 0.7330382858166667 0  0.2094395102333333 0.7330382858166667 0  0.31415926535 0.7330382858166667 0  0.4188790204666667 0.7330382858166667 0  0.5235987755833333 0.7330382858166667 0  0.6283185307 0.7330382858166667 0  0.7330382858166667 0.7330382858166667 0  0.8377580409333334 0.7330382858166667 0  0.9424777960499999 0.7330382858166667 0  1.047197551166667 0.7330382858166667 0  1.151917306283333 0.7330382858166667 0  1.2566370614 0.7330382858166667 0  1.361356816516667 0.7330382858166667 0  1.466076571633333 0.7330382858166667 0  1.57079632675 0.7330382858166667 0  1.675516081866667 0.7330382858166667 0  1.780235836983333 0.7330382858166667 0  1.8849555921 0.7330382858166667 0  1.989675347216667 0.7330382858166667 0  2.094395102333333 0.7330382858166667 0  2.19911485745 0.7330382858166667 0  2.303834612566667 0.7330382858166667 0  2.408554367683334 0.7330382858166667 0  2.5132741228 0.7330382858166667 0  2.617993877916667 0.7330382858166667 0  2.722713633033333 0.7330382858166667 0  2.82743338815 0.7330382858166667 0  2.932153143266667 0.7330382858166667 0  3.036872898383334 0.7330382858166667 0  3.1415926535 0.7330382858166667 0  0 0.8377580409333334 0  0.1047197551166667 0.8377580409333334 0  0.2094395102333333 0.8377580409333334 0  0.31415926535 0.8377580409333334 0  0.4188790204666667 0.8377580409333334 0  0.5235987755833333 0.8377580409333334 0  0.6283185307 0.8377580409333334 0  0.7330382858166667 0.8377580409333334 0  0.8377580409333334 0.8377580409333334 0  0.9424777960499999 0.8377580409333334 0  1.047197551166667 0.8377580409333334 0  1.151917306283333 0.8377580409333334 0  1.2566370614 0.8377580409333334 0  1.361356816516667 0.8377580409333334 0  1.466076571633333 0.8377580409333334 0  1.57079632675 0.8377580409333334 0  1.675516081866667 0.8377580409333334 0  1.780235836983333 0.8377580409333334 0  1.8849555921 0.8377580409333334 0  1.989675347216667 0.8377580409333334 0  2.094395102333333 0.8377580409333334 0  2.19911485745 0.8377580409333334 0  2.303834612566667 0.8377580409333334 0  2.408554367683334 0.8377580409333334 0  2.5132741228 0.8377580409333334 0  2.617993877916667 0.8377580409333334 0  2.722713633033333 0.8377580409333334 0  2.82743338815 0.8377580409333334 0  2.932153143266667 0.8377580409333334 0  3.036872898383
[...]
<PointData  Scalars="f_11"> 
<DataArray  type="Float64"  Name="f_11"  format="ascii">0.0000000000000000e+00  -1.0315227355730962e-01  -2.0172806982922706e-01  -2.9134779394554333e-01  -3.6801688580305530e-01  -4.2829688709253283e-01  -4.6945180078544907e-01  -4.8956317974424601e-01  -4.8760871894524205e-01  -4.6350068320372356e-01  -4.1808220993014261e-01  -3.5308130795977932e-01  -2.7102414871725422e-01  -1.7511093430118982e-01  -6.9059150837764732e-02  4.3079696863064745e-02  1.5712278417011807e-01  2.6897037416537722e-01  3.7482395631253551e-01  4.7140029582590370e-01  5.5613414782189108e-01  6.2736337494841710e-01  6.8449158071705052e-01  7.2812510001917519e-01  7.6018323070281824e-01  7.8398289693592216e-01  8.0430145551718546e-01  8.2742404170088324e-01  8.6118465996779703e-01  9.1501312810293767e-01  1.0000000000000000e+00  0.0000000000000000e+00  -8.3525001784418323e-02  -1.6333288769005963e-01  -2.3586592815515245e-01  -2.9787807830540941e-01  -3.4657340355180266e-01  -3.7972444041514725e-01  -3.9576515684457542e-01  -3.9385425800346763e-01  -3.7390584250227682e-01  -3.3658579411500156e-01  -2.8327373313290477e-01  -2.1599178454734172e-01  -1.3730278164456813e-01  -5.0181750053051838e-02  4.2134449608623357e-02  1.3631365378406191e-01  2.2910493404980906e-01  3.1751878839946757e-01  3.9900478625314756e-01  4.7162096594740582e-01  5.3419012227795259e-01  5.8643928578762572e-01  6.2912016030320816e-01  6.6411001898079791e-01  6.9449452573809478e-01  7.2463611133753303e-01  7.6023385721302428e-01  8.0838329802516318e-01  8.7764712976840575e-01  9.7814760073505025e-01  0.0000000000000000e+00  -6.7641598238957656e-02  -1.3226486633357179e-01  -1.9098050318044110e-01  -2.4115151455717887e-01  -2.8050523350967932e-01  -3.0722905608940132e-01  -3.2004555717152550e-01  -3.1826352515227130e-01  -3.0180247157978962e-01  -2.7118928667612913e-01  -2.2752687402210031e-01  -1.7243575455833218e-01  -1.0797072823438159e-01  -3.6515669599542604e-02  3.9339636301331617e-02  1.1693608113738338e-01  1.9369031126327801e-01  2.6724322890678448e-01  3.3560699111343345e-01  3.9730600746512906e-01  4.5150814614489498e-01  4.9814333761265367e-01  5.3800799773562913e-01  5.7285515397250930e-01  6.0547182232664543e-01  6.3974702214045842e-01  6.8073580618501528e-01  7.3472680715097460e-01  8.0932305097380830e-01  9.1354545764747053e-01  0.0000000000000000e+00  -5.4798190493168551e-02  -1.0714684215089838e-01  -1.5470088023147469e-01  -1.9531949695660622e-01  -2.2715682962987346e-01  -2.4873943714214469e-01  -2.5902705654015479e-01  -2.5745382698650021e-01  -2.4394798980584695e-01  -2.1892897364691147e-01  -1.8328171251215822e-01  -1.3830897876828596e-01  -8.5663400080367089e-02  -2.7261626670632144e-02  3.4816215445581652e-02  9.8438142856860020e-02  1.6153904665891800e-01  2.2224247666652744e-01  2.7898154053195739e-01  3.3061533751508770e-01  3.7653793610674147e-01  4.1677771853324491e-01  4.5208593961832777e-01  4.8401456451859409e-01  5.1498483911826543e-01  5.4834958800737010e-01  5.8845391030046690e-01  6.4070074108406505e-01  7.1162966281175699e-01  8.0901699438550334e-01  0.0000000000000000e+00  -4.4421862727088215e-02  -8.6857731428270177e-02  -1.2540620564187804e-01  -1.5833130162596379e-01  -1.8413589392955759e-01  -2.0162447569485503e-01  -2.0995238808332922e-01  -2.0865923807223941e-01  -1.9768488634516868e-01  -1.7736711362692881e-01  -1.4842083198581105e-01  -1.1189946293111591e-01  -6.9139821736678334e-02  -2.1692493466233472e-02  2.8759770864965121e-02  8.0492697655211123e-02  1.3183697577607895e-01  1.8127730031429623e-01  2.2755079103077439e-01  2.6974189053927178e-01  3.0737132568489950e-01  3.4047737756674323e-01  3.6968854032160414e-01  3.9628764186343529e-01  4.2226863500484851e-01  4.5038852848122629e-01  4.8421830022261853e-01  5.2819811026576491e-01  5.8770370566097030e-01  6.6913060637665267e-01  0.0000000000000000e+00  -3.6045733440708501e-02  -7.0483791241485946e-02  -1.0177501793997308e-01  -1.2851425843162503e-01  -1.4948988594833967e-01  -1.6373471570976644e-01  -1.7056600368538793e-01  -1.6961268728302151e-01  -1.6082855804166574e-01  -1.4449064215013172e-01  -1.2118267688276826e-01  -9.1764182361848426e-02  -5.7326210513800144e-02  -1.9135379454674393e-02  2.1431753646886476e-02  6.2961587621898810e-02  1.0408102940906731e-01  1.4353701311621497e-01  1.8027536456026638e-01  2.1351661108920314e-01  2.4282671015591439e-01  2.6818119119839245e-01  2.9002186484572234e-01  3.0930603915344757e-01  3.2754908042574954e-01  3.4686215177516289e-01  3.6998804284431858e-01  4.0033915934826714e-01  4.4204296697120993e-01  5.0000000002592104e-01  0.0000000000000000e+00  -2.9288784904442207e-02  -5.7279182133930753e-02  -8.2728312254639766e-02  -1.0450187401213838e-01  -1.2162243956022048e-01  -1.3331083811131447e-01  -1.3901877996356293e-01  -1.3845123882163776e-01  -1.3157753793416099e-01  -1.1863055655821744e-01  -1.0009396728983945e-01  -7.6677910226485055e-02  -4.9283984650520522e-02  -1.8960871248767025e-02  1.3147732603525719e-02  4.5860893578805365e-02  7.8021776443526814e-02  1.0856028549732218e-01  1.3655480092084449e-01  1.6129095145526118e-01  1.8231563876861787e-01  1.9948491826448850e-01  2.1300483771337630e-01  2.2346492767942477e-01  2.3186471291416350e-01  2.3963435736898600e-01  2.4865135328036214e-01  2.6125600481679745e-01  2.8026933040278335e-01  3.0901699440910685e-01  0.0000000000000000e+00  -2.3839543654446699e-02  -4.6634070122369586e-02  -6.7383513926469157e-02  -8.5175773789718842e-02  -9.9225926970555073e-02  -1.0890994390718076e-01  -1.1379142994399362e-01  -1.1364021105034453e-01  -1.0844192076861917e-01  -9.8398122331837493e-02  -8.3916897460779280e-02  -6.5594235135701187e-02  -4.4186942464430549e-02  -2.0578158606920072e-02  4.2631346312518997e-03  2.9326960137042793e-02  5.3609726950253365e-02  7.6162226763764510e-02  9.6136320775786113e-02  1.1282847921996579e-01  1.2571851472459006e-01  1.3450211672324389e-01  1.3911613933473260e-01  1.3975600818015319e-01  1.3688507869897618e-01  1.3123628410228849e-01  1.2380693879486705e-01  1.1584809680928533e-01  1.0885038982313076e-01  1.0452846330932727e-01  0.0000000000000000e+00  -1.9442865809074190e-02  -3.8048807762097757e-02  -5.5017249866824249e-02  -6.9618790915464718e-02  -8.1227051358741281e-02  -8.9346202547598869e-02  -9.3633017674525906e-02  -9.3912509763508484e-02  -9.0186488998385300e-02  -8.2634669700803687e-02  -7.1608275135331440e-02  -5.7616413747412325e-02  -4.1305820516006890e-02  -2.3434858765853377e-02  -4.8429483647259497e-03  1.3583185972931205e-02  3.0944877687203332e-02  4.6366810163878724e-02  5.9030507172575283e-02  6.8204312736985656e-02  7.3268239540371496e-02  7.3732215901043799e-02  6.9246466489648092e-02  5.9603009411378208e-02  4.4727526985472416e-02  2.4661151771407725e-02  -4.6801673194687206e-04  -3.0483607018059279e-02  -6.5209635731783747e-02  -1.0452846322002621e-01  0.0000000000000000e+00  -1.5889212352865348e-02  -3.1112991097338158e-02  -4.5035177953445547e-02  -5.7077000428699592e-02  -6.6742898106533929e-02  -7.3643035389088202e-02  -7.7511603171652066e-02  -7.8220182033204064e-02  -7.5785642970779540e-02  -7.0372292338376816e-02  -6.2288218166738511e-02  -5.1976057106185358e-02  -3.9998665711608955e-02  -2.7020437042979416e-02  -1.3785243864107862e-02  -1.0922037681979741e-03  1.0229359015386465e-02  1.9344242368160659e-02  2.5433380854060918e-02  2.7711897364055309e-02  2.5441545665032657e-02  1.7935941909347254e-02  4.5570601847838626e-03  -1.5298435827100779e-02  -4.2224352841283404e-02  -7.6842864544698311e-02  -1.1985634824609842e-01  -1.7211439217116942e-01  -2.3469732948844441e-01  -3.0901699432370822e-01  0.0000000000000000e+00  -1.3005904310080387e-02  -2.5488394514371814e-02  -3.6947431797696884e-02  -4.6928873361186396e-02  -5.5045314522270100e-02  -6.0994488891797240e-02  -6.4574553787545189e-02  -6.5695707161796776e-02  -6.4387728423691587e-02  -6.0803206110652173e-02  -5.5216406896726113e-02  -4.8017948320297384e-02  -3.9705656193062475e-02  -3.0872210302250881e-02  -2.2190401469041672e-02  -1.4397031778762667e-02  -8.2766806799445952e-03  -4.6467264713974162e-03  -4.3451509769908570e-03  -8.2227629088789563e-03  -1.7141553653649881e-02  -3.1980952870752054e-02  -5.3653789541599134e-02  -8.3133800773600885e-02  -1.2149658443226800e-01  -1.6997598617293533e-01  -2.3003807521316266e-01  -3.0347512961597328e-01  -3.9252245905810951e-01  -4.9999999994815786e-01  0.0000000000000000e+00  -1.0649930143617680e-02  -2.0894947117481237e-02  -3.0348472659977827e-02  -3.8660023522618325e-02  -4.5531837640233615e-02  -5.0733839378088660e-02  -5.4116466927598077e-02  -5.5620954696690830e-02  -5.5286754789908847e-02  -5.3255895681930739e-02  -4.9774213339601033e-02  -4.5189549469995531e-02  -3.9947190915245213e-02  -3.4583019601909508e-02  -2.9715048637906739e-02  -2.6034230893086072e-02  -2.4295635046408640e-02  -2.5311284322982901e-02  -2.9946139897714309e-02  -3.9118881315664884e-02  -5.3809290526334819e-02  -7.5074188551987858e-02  -1.0407401354433680e-01  -1.4211228062928730e-01  -1.9069034801999801e-01  -2.5158015714071369e-01  -3.2691795009318919e-01  -4.1932243538275588e-01  -5.3204151864527627e-01  -6.6913060630992349e-01  0.0000000000000000e+00  -8.7019410083077394e-03  -1.7099038643008137e-02  -2.4900321448227593e-02  -3.1842251228430388e-02  -3.7701663252920646e-02  -4.2307776787794085e-02  -4.5552975220188065e-02  -4.7402073635019026e-02  -4.7899826741781011e-02  -4.7176487048880070e-02  -4.5451306785385948e-02  -4.3033990361819117e-02  -4.0324248171389937e-02  -3.7809775965539111e-02  -3.6063183295041733e-02  -3.5738614023054338e-02  -3.7569034788664697e-02  -4.2365406199363805e-02  -5.1019189812734352e-02  -6.4509876910987418e-02  -8.3919451162471667e-02  -1.1045591942539883e-01  -1.4548827164480291e-01  -1.9059547694329862e-01  -2.4763241067950112e-01  -3.1881596614641960e-01  -4.0683507234706057e-01  -5.1498896171438580e-01  -6.4735886279639077e-01  -8.0901699433272412e-01  0.0000000000000000e+00  -7.0611158581386701e-03  -1.3903534468361432e-02  -2.0318278030280603e-02  -2.6115761620542566e-02  -3.1135356891713983e-02  -3.5254750405835457e-02  -3.8398961370795542e-02  -4.0548845191159845e-02  -4.1748882421928944e-02  -4.2114047950390462e-02  -4.1835582111666034e-02  -4.1185551530082264e-02  -4.0520197453380917e-02  -4.0282224477833251e-02  -4.1002380566271028e-02  -4.3300914601313967e-02  -4.7889762330593742e-02  -5.5576595975296357e-02  -6.7272167520187429e-02  -8.4002672938450471e-02  -1.0692915980052690e-01  -1.3737629430479700e-01  -1.7687310262198846e-01  -2.2720862010792336e-01  -2.9050574355289061e-01  -3.6931701856238225e-01  -4.6674664834206664e-01  -5.8660373329592130e-01  -7.3359270442035429e-01  -9.1354545761094841e-01  0.0000000000000000e+00  -5.6406090514242117e-03  -1.1138940372423118e-02  -1.6358326180592048e-02  -2.1173555411867807e-02  -2.5477155202373789e-02  -2.9186232423141393e-02  -3.2249904532540750e-02  -3.4657243216038580e-02  -3.6445554872971513e-02  -3.7708745716291271e-02  -3.8605481701352612e-02  -3.9366867607704213e-02  -4.0303444246218123e-02  -4.1811441926576765e-02  -4.4378430729753893e-02  -4.8588767545433481e-02  -5.5129545904915235e-02  -6.4798094309904714e-02  -7.8512428099065446e-02  -9.7326426225926715e-02  -1.2245186844017299e-01  -1.5528982671441374e-01  -1.9747426138247454e-01  -2.5093104059107202e-01  -3.1795600491587833e-01  -4.0131617203624820e-01  -5.0437876527020931e-01  -6.3127351201809712e-01  -7.8709466235711567e-01  -9.7814760071638129e-01  0.0000000000000000e+00  -4.3633081907867056e-03  -8.6551887992589831e-03  -1.2805471229967481e-02  -1.6747058358847280e-02  -2.0418796429845627e-02  -2.3769768841277492e-02  -2.6765217691174206e-02  -2.9394107330226911e-02  -3.1678155149782714e-02  -3.3681991107225778e-02  -3.5523992373229570e-02  -3.7387292582622238e-02  -3.9530500461731871e-02  -4.2297787111414367e-02  -4.6128214427241923e-02  -5.1564471216070780e-02  -5.9261544460784202e-02  -6.9996262395573799e-02  -8.4679083048513015e-02  -1.0436994690630726e-01  -1.3030044928062123e-01  -1.6390500729337598e-01  -2.0686409774945577e-01  -2.6116303629078497e-01  -3.2917017847802421e-01  -4.1373888653416668e-01  -5.1833817162164697e-01  -6.4721765409266618e-01  -8.0561345892100644e-01  -1.0000000000000000e+00  0.0000000000000000e+00  -3.1576285375050166e-03  -6.3135177642105805e-03  -9.4622617482178692e-03  -1.2592070381877313e-02  -1.5683849865420742e-02  -1.8712740942665056e-02  -2.1652516959951261e-02  -2.4482946360059515e-02  -2.7199920475156854e-02  -2.9827872621872444e-02  -3.2433801881264650e-02  -3.5142092828689651e-02  -3.8149311291758747e-02  -4.1738266623748917e-02  -4.6290862974296812e-02  -5.2299605144886255e-02  -6.0378059233538062e-02  -7.1271068030486287e-02  -8.5866056052351133e-02  -1.0520729932759992e-01  -1.3051555471950299e-01  -1.6321592464416201e-01  -2.0497726859730986e-01  -2.5776686979290842e-01  -3.2392444578388602e-01  -4.0625999479259561e-01  -5.0818044935506668e-01  -6.3385073571605355e-01  -7.8839569477503801e-01  -9.7814760075371920e-01  0.0000000000000000e+00  -1.9530502239335735e-03  -3.9778770428336024e-03  -6.1367007646227056e-03  -8.4740697054947259e-03  -1.1011479929101857e-02  -1.3745749084063896e-02  -1.6651785270204972e-02  -1.9689952475411436e-02  -2.2817779887977934e-02  -2.6005342484058787e-02  -2.9253301440143997e-02  -3.2612374831953672e-02  -3.6202940596161533e-02  -4.0233570089506947e-02  -4.5017552066526176e-02  -5.0986879029019556e-02  -5.8703703148474236e-02  -6.8869889865627934e-02  -8.2335960659171259e-02  -1.0011137841908833e-01  -1.2337874989602708e-01  -1.5351506985856914e-01  -1.9212359479423796e-01  -2.4108031142570982e-01  -3.0259927755459365e-01  -3.7932140048319740e-01  -4.7443154169936413e-01  -5.9180927359065694e-01  -7.3621925766001017e-01  -9.1354545768399276e-01  0.0000000000000000e+00  -6.7506185071966704e-04  -1.5052167107256697e-03  -2.6286463364177020e-03  -4.1517903790570026e-03  -6.1384694978721070e-03  -8.6044433947087707e-03  -1.1518346404124882e-02  -1.4809314359826306e-02  -1.8380961734605041e-02  -2.2130755604424571e-02  -2.5973327550773428e-02  -2.9865921249152712e-02  -3.3834032239400298e-02  -3.7995378426181857e-02  -4.2580645611492697e-02  -4.7949961574915816e-02  -5.4604726272865341e-02  -6.3195211784283722e-02  -7.4525182293448247e-02  -8.9555608376405235e-02  -1.0941030296604402e-01  -1.3538694227258416e-01  -1.6897742495591189e-01  -2.1190186037555919e-01  -2.6616067985938041e-01  -3.3410947704900301e-01  -4.1856127198267462e-01  -5.2292104726355093e-01  -6.5135772881358611e-01  -8.0901699443828257e-01  0.0000000000000000e+00  7.6089690413144219e-04  1.2661205469204774e-03  1.2863793545357023e-03  6.4221450433469369e-04  -7.7812089447449164e-04  -3.0084460272818084e-03  -6.0034365718745581e-03  -9.6468611384301368e-03  -1.3768797794976704e-02  -1.8170487730406287e-02  -2.2654755117753774e-02  -2.7059412902227565e-02  -3.1290838699087109e-02  -3.5354972363786596e-02  -3.9383357439765933e-02  -4.3652494307582439e-02  -4.8595639522611533e-02  -5.4807199558145434e-02  -6.3040941591096467e-02  -7.4204289294239029e-02  -8.9351904104550919e-02  -1.0968250349986723e-01  -1.3654339170080873e-01  -1.7144745787006754e-01  -2.1610744723598907e-01  -2.7249217907527495e-01  -3.4290914994459093e-01  -4.3011772449320157e-01  -5.3747700235578766e-01  -6.6913060644338185e-01  0.0000000000000000e+00  2.4570087307934289e-03  4.5308856395999183e-03  5.8773306975393007e-03  6.2256323375246255e-03  5.4056752433974424e-03  3.3642884277224950e-03  1.6907151534302419e-04  -4.0009324965496482e-03  -8.8770602741778028e-03  -1.4133469473654185e-02  -1.9427293209915136e-02  -2.4442871158887210e-02  -2.8936061374737483e-02  -3.2774689278767685e-02  -3.5971654606960543e-02  -3.8708054002808558e-02  -4.1344811488882062e-02  -4.4422638350821698e-02  -4.8651547532504953e-02  -5.4892499578300724e-02  -6.4134939000137989e-02  -7.7474892886194191e-02  -9.6098878926445433e-02  -1.2127907697153885e-01  -1.5438506800985952e-01  -1.9691699077043515e-01  -2.5056430183211176e-01  -3.1729357518535223e-01  -3.9946808938785405e-01  -5.0000000010368428e-01  0.0000000000000000e+00  4.5428395625174631e-03  8.5355664124442711e-03  1.1483492880803556e-02  1.2997153645361354e-02  1.2831401403108180e-02  1.0909780119450043e-02  7.3316035504494767e-03  2.3608676831239619e-03  -3.6020888557441208e-03  -1.0063569123363513e-02  -1.6490106450061479e-02  -2.2367586525723605e-02  -2.7260308457729289e-02  -3.0864427491354277e-02  -3.3050820169455590e-02  -3.3893517092304905e-02  -3.3681355520138824e-02  -3.2912271485391019e-02  -3.2271511857182363e-02  -3.2596825887932918e-02  -3.4835227530285021e-02  -3.9997064611481309e-02  -4.9113789337987823e-02  -6.3205947652421379e-02  -8.3267499839017114e-02  -1.1027171495764208e-01  -1.4520266192632930e-01  -1.8911490655624894e-01  -2.4322260058393316e-01  -3.0901699449450498e-01  0.0000000000000000e+00  7.1881797268350612e-03  1.3602887190687285e-02  1.8548390015237327e-02  2.1476692138836441e-02  2.2042805166262412e-02  2.0139761878350176e-02  1.5909832667466046e-02  9.7307480023736855e-03  2.1781909253474870e-03  -6.0318389863878883e-03  -1.4115204914133116e-02  -2.1299335431901843e-02  -2.6902687132156187e-02  -3.0406226070219332e-02  -3.1509974187348452e-02  -3.0169144082229187e-02  -2.6606409863951481e-02  -2.1299237169899884e-02  -1.4943691413397445e-02  -8.3985180180651611e-03  -2.6153121007786587e-03  1.4379270684244071e-03  2.8517702251038869e-03  8.4074224796160492e-04  -5.2082780010695318e-03  -1.5710634043089727e-02  -3.0885502583173009e-02  -5.0786333110445836e-02  -7.5359553087925232e-02  -1.0452846339862834e-01  0.0000000000000000e+00  1.0620167730805435e-02  2.0164451646423394e-02  2.7664895209055001e-02  3.2358762738768990e-02  3.3765611504710642e-02  3.1736543832147780e-02  2.6470778441733078e-02  1.8497898020663605e-02  8.6275124712784212e-03  -2.1287071756975620e-03  -1.2654935783199896e-02  -2.1839370357374096e-02  -2.8681965055463592e-02  -3.2391022080476319e-02  -3.2458988701090125e-02  -2.8709805766268536e-02  -2.1312894157472891e-02  -1.0762083087131391e-02  2.1788387103173425e-03  1.6559064020444585e-02  3.1344601784921634e-02  4.5533452634404128e-02  5.8271574552636367e-02  6.8959149715598314e-02  7.7337786776738346e-02  8.3551376826362156e-02  8.8176173217408754e-02  9.2219019951397960e-02  9.7086198637466439e-02  1.0452846313072536e-01  0.0000000000000000e+00  1.5146328071730617e-02  2.8804631647246323e-02  3.9635811810854321e-02  4.6584033598972223e-02  4.8983324135338506e-02  4.6626005461756589e-02  3.9786291682029448e-02  2.9196793914544189e-02  1.5980317614651116e-02  1.5437509432989760e-03  -1.2555401734370312e-02  -2.4756557478439026e-02  -3.3642942189654121e-02  -3.8073100336820619e-02  -3.7283723604823751e-02  -3.0953207441680213e-02  -1.9219076272948284e-02  -2.6467996906767806e-03  1.7847881295697660e-02  4.1116643908506501e-02  6.5926137198181356e-02  9.1122617874434944e-02  1.1579957622520801e-01  1.3945441411027354e-01  1.6212186152183600e-01  1.8447477974122956e-01  2.0788703933009980e-01  2.3445792331573598e-01  2.6700257131167876e-01  3.0901699423830981e-01  0.0000000000000000e+00  2.1185746254126139e-02  4.0319930004287380e-02  5.5555742838658329e-02  6.5435885837761915e-02  6.9039292783565354e-02  6.6075525784248676e-02  5.6917693217792033e-02  4.2570789047140539e-02  2.4578713925731181e-02  4.8792901320330925e-03  -1.4378267083710917e-02  -3.1035212405209803e-02  -4.3124280093120089e-02  -4.9049634239443890e-02  -4.7727492818232527e-02  -3.8672861620954437e-02  -2.2022912437099092e-02  1.5064728772045677e-03  3.0728189777873598e-02  6.4146678760760314e-02  1.0016220307859044e-01  1.3729928505517558e-01  1.7444017926884631e-01  2.1104450158230439e-01  2.4733839451165032e-01  2.8446071141077750e-01  3.2455929335534228e-01  3.7083700823211563e-01  4.2755425208539288e-01  4.9999999987039473e-01  0.0000000000000000e+00  2.93114180